<VTKFile type='UnstructuredGrid' version='0.1' byte_order='LittleEndian'>
<!-- curve_chen_ueta.csv -->
  <UnstructuredGrid>
    <Piece NumberOfPoints='10002' NumberOfCells='10001'>
      <PointData Scalars='time x y z' >
        <DataArray Name='time' type='Float64' format='ascii' NumberOfComponents='1'>
          50.000000000007127 50.005000000007129 50.010000000007132 50.015000000007134 50.020000000007137 50.025000000007140 50.030000000007142 50.035000000007145 50.040000000007147 50.045000000007150 50.050000000007152 50.055000000007155 50.060000000007157 50.065000000007160 50.070000000007163 50.075000000007165 50.080000000007168 50.085000000007170 50.090000000007173 50.095000000007175 50.100000000007178 50.105000000007180 50.110000000007183 50.115000000007186 50.120000000007188 50.125000000007191 50.130000000007193 50.135000000007196 50.140000000007198 50.145000000007201 50.150000000007203 50.155000000007206 50.160000000007209 50.165000000007211 50.170000000007214 50.175000000007216 50.180000000007219 50.185000000007221 50.190000000007224 50.195000000007227 50.200000000007229 50.205000000007232 50.210000000007234 50.215000000007237 50.220000000007239 50.225000000007242 50.230000000007244 50.235000000007247 50.240000000007250 50.245000000007252 50.250000000007255 50.255000000007257 50.260000000007260 50.265000000007262 50.270000000007265 50.275000000007267 50.280000000007270 50.285000000007273 50.290000000007275 50.295000000007278 50.300000000007280 50.305000000007283 50.310000000007285 50.315000000007288 50.320000000007290 50.325000000007293 50.330000000007296 50.335000000007298 50.340000000007301 50.345000000007303 50.350000000007306 50.355000000007308 50.360000000007311 50.365000000007313 50.370000000007316 50.375000000007319 50.380000000007321 50.385000000007324 50.390000000007326 50.395000000007329 50.400000000007331 50.405000000007334 50.410000000007336 50.415000000007339 50.420000000007342 50.425000000007344 50.430000000007347 50.435000000007349 50.440000000007352 50.445000000007354 50.450000000007357 50.455000000007360 50.460000000007362 50.465000000007365 50.470000000007367 50.475000000007370 50.480000000007372 50.485000000007375 50.490000000007377 50.495000000007380 50.500000000007383 50.505000000007385 50.510000000007388 50.515000000007390 50.520000000007393 50.525000000007395 50.530000000007398 50.535000000007400 50.540000000007403 50.545000000007406 50.550000000007408 50.555000000007411 50.560000000007413 50.565000000007416 50.570000000007418 50.575000000007421 50.580000000007423 50.585000000007426 50.590000000007429 50.595000000007431 50.600000000007434 50.605000000007436 50.610000000007439 50.615000000007441 50.620000000007444 50.625000000007446 50.630000000007449 50.635000000007452 50.640000000007454 50.645000000007457 50.650000000007459 50.655000000007462 50.660000000007464 50.665000000007467 50.670000000007470 50.675000000007472 50.680000000007475 50.685000000007477 50.690000000007480 50.695000000007482 50.700000000007485 50.705000000007487 50.710000000007490 50.715000000007493 50.720000000007495 50.725000000007498 50.730000000007500 50.735000000007503 50.740000000007505 50.745000000007508 50.750000000007510 50.755000000007513 50.760000000007516 50.765000000007518 50.770000000007521 50.775000000007523 50.780000000007526 50.785000000007528 50.790000000007531 50.795000000007533 50.800000000007536 50.805000000007539 50.810000000007541 50.815000000007544 50.820000000007546 50.825000000007549 50.830000000007551 50.835000000007554 50.840000000007556 50.845000000007559 50.850000000007562 50.855000000007564 50.860000000007567 50.865000000007569 50.870000000007572 50.875000000007574 50.880000000007577 50.885000000007580 50.890000000007582 50.895000000007585 50.900000000007587 50.905000000007590 50.910000000007592 50.915000000007595 50.920000000007597 50.925000000007600 50.930000000007603 50.935000000007605 50.940000000007608 50.945000000007610 50.950000000007613 50.955000000007615 50.960000000007618 50.965000000007620 50.970000000007623 50.975000000007626 50.980000000007628 50.985000000007631 50.990000000007633 50.995000000007636 51.000000000007638 51.005000000007641 51.010000000007643 51.015000000007646 51.020000000007649 51.025000000007651 51.030000000007654 51.035000000007656 51.040000000007659 51.045000000007661 51.050000000007664 51.055000000007666 51.060000000007669 51.065000000007672 51.070000000007674 51.075000000007677 51.080000000007679 51.085000000007682 51.090000000007684 51.095000000007687 51.100000000007689 51.105000000007692 51.110000000007695 51.115000000007697 51.120000000007700 51.125000000007702 51.130000000007705 51.135000000007707 51.140000000007710 51.145000000007713 51.150000000007715 51.155000000007718 51.160000000007720 51.165000000007723 51.170000000007725 51.175000000007728 51.180000000007730 51.185000000007733 51.190000000007736 51.195000000007738 51.200000000007741 51.205000000007743 51.210000000007746 51.215000000007748 51.220000000007751 51.225000000007753 51.230000000007756 51.235000000007759 51.240000000007761 51.245000000007764 51.250000000007766 51.255000000007769 51.260000000007771 51.265000000007774 51.270000000007776 51.275000000007779 51.280000000007782 51.285000000007784 51.290000000007787 51.295000000007789 51.300000000007792 51.305000000007794 51.310000000007797 51.315000000007799 51.320000000007802 51.325000000007805 51.330000000007807 51.335000000007810 51.340000000007812 51.345000000007815 51.350000000007817 51.355000000007820 51.360000000007823 51.365000000007825 51.370000000007828 51.375000000007830 51.380000000007833 51.385000000007835 51.390000000007838 51.395000000007840 51.400000000007843 51.405000000007846 51.410000000007848 51.415000000007851 51.420000000007853 51.425000000007856 51.430000000007858 51.435000000007861 51.440000000007863 51.445000000007866 51.450000000007869 51.455000000007871 51.460000000007874 51.465000000007876 51.470000000007879 51.475000000007881 51.480000000007884 51.485000000007886 51.490000000007889 51.495000000007892 51.500000000007894 51.505000000007897 51.510000000007899 51.515000000007902 51.520000000007904 51.525000000007907 51.530000000007909 51.535000000007912 51.540000000007915 51.545000000007917 51.550000000007920 51.555000000007922 51.560000000007925 51.565000000007927 51.570000000007930 51.575000000007932 51.580000000007935 51.585000000007938 51.590000000007940 51.595000000007943 51.600000000007945 51.605000000007948 51.610000000007950 51.615000000007953 51.620000000007956 51.625000000007958 51.630000000007961 51.635000000007963 51.640000000007966 51.645000000007968 51.650000000007971 51.655000000007973 51.660000000007976 51.665000000007979 51.670000000007981 51.675000000007984 51.680000000007986 51.685000000007989 51.690000000007991 51.695000000007994 51.700000000007996 51.705000000007999 51.710000000008002 51.715000000008004 51.720000000008007 51.725000000008009 51.730000000008012 51.735000000008014 51.740000000008017 51.745000000008019 51.750000000008022 51.755000000008025 51.760000000008027 51.765000000008030 51.770000000008032 51.775000000008035 51.780000000008037 51.785000000008040 51.790000000008042 51.795000000008045 51.800000000008048 51.805000000008050 51.810000000008053 51.815000000008055 51.820000000008058 51.825000000008060 51.830000000008063 51.835000000008066 51.840000000008068 51.845000000008071 51.850000000008073 51.855000000008076 51.860000000008078 51.865000000008081 51.870000000008083 51.875000000008086 51.880000000008089 51.885000000008091 51.890000000008094 51.895000000008096 51.900000000008099 51.905000000008101 51.910000000008104 51.915000000008106 51.920000000008109 51.925000000008112 51.930000000008114 51.935000000008117 51.940000000008119 51.945000000008122 51.950000000008124 51.955000000008127 51.960000000008129 51.965000000008132 51.970000000008135 51.975000000008137 51.980000000008140 51.985000000008142 51.990000000008145 51.995000000008147 52.000000000008150 52.005000000008152 52.010000000008155 52.015000000008158 52.020000000008160 52.025000000008163 52.030000000008165 52.035000000008168 52.040000000008170 52.045000000008173 52.050000000008176 52.055000000008178 52.060000000008181 52.065000000008183 52.070000000008186 52.075000000008188 52.080000000008191 52.085000000008193 52.090000000008196 52.095000000008199 52.100000000008201 52.105000000008204 52.110000000008206 52.115000000008209 52.120000000008211 52.125000000008214 52.130000000008216 52.135000000008219 52.140000000008222 52.145000000008224 52.150000000008227 52.155000000008229 52.160000000008232 52.165000000008234 52.170000000008237 52.175000000008239 52.180000000008242 52.185000000008245 52.190000000008247 52.195000000008250 52.200000000008252 52.205000000008255 52.210000000008257 52.215000000008260 52.220000000008262 52.225000000008265 52.230000000008268 52.235000000008270 52.240000000008273 52.245000000008275 52.250000000008278 52.255000000008280 52.260000000008283 52.265000000008285 52.270000000008288 52.275000000008291 52.280000000008293 52.285000000008296 52.290000000008298 52.295000000008301 52.300000000008303 52.305000000008306 52.310000000008309 52.315000000008311 52.320000000008314 52.325000000008316 52.330000000008319 52.335000000008321 52.340000000008324 52.345000000008326 52.350000000008329 52.355000000008332 52.360000000008334 52.365000000008337 52.370000000008339 52.375000000008342 52.380000000008344 52.385000000008347 52.390000000008349 52.395000000008352 52.400000000008355 52.405000000008357 52.410000000008360 52.415000000008362 52.420000000008365 52.425000000008367 52.430000000008370 52.435000000008372 52.440000000008375 52.445000000008378 52.450000000008380 52.455000000008383 52.460000000008385 52.465000000008388 52.470000000008390 52.475000000008393 52.480000000008395 52.485000000008398 52.490000000008401 52.495000000008403 52.500000000008406 52.505000000008408 52.510000000008411 52.515000000008413 52.520000000008416 52.525000000008419 52.530000000008421 52.535000000008424 52.540000000008426 52.545000000008429 52.550000000008431 52.555000000008434 52.560000000008436 52.565000000008439 52.570000000008442 52.575000000008444 52.580000000008447 52.585000000008449 52.590000000008452 52.595000000008454 52.600000000008457 52.605000000008459 52.610000000008462 52.615000000008465 52.620000000008467 52.625000000008470 52.630000000008472 52.635000000008475 52.640000000008477 52.645000000008480 52.650000000008482 52.655000000008485 52.660000000008488 52.665000000008490 52.670000000008493 52.675000000008495 52.680000000008498 52.685000000008500 52.690000000008503 52.695000000008505 52.700000000008508 52.705000000008511 52.710000000008513 52.715000000008516 52.720000000008518 52.725000000008521 52.730000000008523 52.735000000008526 52.740000000008529 52.745000000008531 52.750000000008534 52.755000000008536 52.760000000008539 52.765000000008541 52.770000000008544 52.775000000008546 52.780000000008549 52.785000000008552 52.790000000008554 52.795000000008557 52.800000000008559 52.805000000008562 52.810000000008564 52.815000000008567 52.820000000008569 52.825000000008572 52.830000000008575 52.835000000008577 52.840000000008580 52.845000000008582 52.850000000008585 52.855000000008587 52.860000000008590 52.865000000008592 52.870000000008595 52.875000000008598 52.880000000008600 52.885000000008603 52.890000000008605 52.895000000008608 52.900000000008610 52.905000000008613 52.910000000008615 52.915000000008618 52.920000000008621 52.925000000008623 52.930000000008626 52.935000000008628 52.940000000008631 52.945000000008633 52.950000000008636 52.955000000008638 52.960000000008641 52.965000000008644 52.970000000008646 52.975000000008649 52.980000000008651 52.985000000008654 52.990000000008656 52.995000000008659 53.000000000008662 53.005000000008664 53.010000000008667 53.015000000008669 53.020000000008672 53.025000000008674 53.030000000008677 53.035000000008679 53.040000000008682 53.045000000008685 53.050000000008687 53.055000000008690 53.060000000008692 53.065000000008695 53.070000000008697 53.075000000008700 53.080000000008702 53.085000000008705 53.090000000008708 53.095000000008710 53.100000000008713 53.105000000008715 53.110000000008718 53.115000000008720 53.120000000008723 53.125000000008725 53.130000000008728 53.135000000008731 53.140000000008733 53.145000000008736 53.150000000008738 53.155000000008741 53.160000000008743 53.165000000008746 53.170000000008748 53.175000000008751 53.180000000008754 53.185000000008756 53.190000000008759 53.195000000008761 53.200000000008764 53.205000000008766 53.210000000008769 53.215000000008772 53.220000000008774 53.225000000008777 53.230000000008779 53.235000000008782 53.240000000008784 53.245000000008787 53.250000000008789 53.255000000008792 53.260000000008795 53.265000000008797 53.270000000008800 53.275000000008802 53.280000000008805 53.285000000008807 53.290000000008810 53.295000000008812 53.300000000008815 53.305000000008818 53.310000000008820 53.315000000008823 53.320000000008825 53.325000000008828 53.330000000008830 53.335000000008833 53.340000000008835 53.345000000008838 53.350000000008841 53.355000000008843 53.360000000008846 53.365000000008848 53.370000000008851 53.375000000008853 53.380000000008856 53.385000000008858 53.390000000008861 53.395000000008864 53.400000000008866 53.405000000008869 53.410000000008871 53.415000000008874 53.420000000008876 53.425000000008879 53.430000000008881 53.435000000008884 53.440000000008887 53.445000000008889 53.450000000008892 53.455000000008894 53.460000000008897 53.465000000008899 53.470000000008902 53.475000000008905 53.480000000008907 53.485000000008910 53.490000000008912 53.495000000008915 53.500000000008917 53.505000000008920 53.510000000008922 53.515000000008925 53.520000000008928 53.525000000008930 53.530000000008933 53.535000000008935 53.540000000008938 53.545000000008940 53.550000000008943 53.555000000008945 53.560000000008948 53.565000000008951 53.570000000008953 53.575000000008956 53.580000000008958 53.585000000008961 53.590000000008963 53.595000000008966 53.600000000008968 53.605000000008971 53.610000000008974 53.615000000008976 53.620000000008979 53.625000000008981 53.630000000008984 53.635000000008986 53.640000000008989 53.645000000008991 53.650000000008994 53.655000000008997 53.660000000008999 53.665000000009002 53.670000000009004 53.675000000009007 53.680000000009009 53.685000000009012 53.690000000009015 53.695000000009017 53.700000000009020 53.705000000009022 53.710000000009025 53.715000000009027 53.720000000009030 53.725000000009032 53.730000000009035 53.735000000009038 53.740000000009040 53.745000000009043 53.750000000009045 53.755000000009048 53.760000000009050 53.765000000009053 53.770000000009055 53.775000000009058 53.780000000009061 53.785000000009063 53.790000000009066 53.795000000009068 53.800000000009071 53.805000000009073 53.810000000009076 53.815000000009078 53.820000000009081 53.825000000009084 53.830000000009086 53.835000000009089 53.840000000009091 53.845000000009094 53.850000000009096 53.855000000009099 53.860000000009101 53.865000000009104 53.870000000009107 53.875000000009109 53.880000000009112 53.885000000009114 53.890000000009117 53.895000000009119 53.900000000009122 53.905000000009125 53.910000000009127 53.915000000009130 53.920000000009132 53.925000000009135 53.930000000009137 53.935000000009140 53.940000000009142 53.945000000009145 53.950000000009148 53.955000000009150 53.960000000009153 53.965000000009155 53.970000000009158 53.975000000009160 53.980000000009163 53.985000000009165 53.990000000009168 53.995000000009171 54.000000000009173 54.005000000009176 54.010000000009178 54.015000000009181 54.020000000009183 54.025000000009186 54.030000000009188 54.035000000009191 54.040000000009194 54.045000000009196 54.050000000009199 54.055000000009201 54.060000000009204 54.065000000009206 54.070000000009209 54.075000000009211 54.080000000009214 54.085000000009217 54.090000000009219 54.095000000009222 54.100000000009224 54.105000000009227 54.110000000009229 54.115000000009232 54.120000000009234 54.125000000009237 54.130000000009240 54.135000000009242 54.140000000009245 54.145000000009247 54.150000000009250 54.155000000009252 54.160000000009255 54.165000000009258 54.170000000009260 54.175000000009263 54.180000000009265 54.185000000009268 54.190000000009270 54.195000000009273 54.200000000009275 54.205000000009278 54.210000000009281 54.215000000009283 54.220000000009286 54.225000000009288 54.230000000009291 54.235000000009293 54.240000000009296 54.245000000009298 54.250000000009301 54.255000000009304 54.260000000009306 54.265000000009309 54.270000000009311 54.275000000009314 54.280000000009316 54.285000000009319 54.290000000009321 54.295000000009324 54.300000000009327 54.305000000009329 54.310000000009332 54.315000000009334 54.320000000009337 54.325000000009339 54.330000000009342 54.335000000009344 54.340000000009347 54.345000000009350 54.350000000009352 54.355000000009355 54.360000000009357 54.365000000009360 54.370000000009362 54.375000000009365 54.380000000009368 54.385000000009370 54.390000000009373 54.395000000009375 54.400000000009378 54.405000000009380 54.410000000009383 54.415000000009385 54.420000000009388 54.425000000009391 54.430000000009393 54.435000000009396 54.440000000009398 54.445000000009401 54.450000000009403 54.455000000009406 54.460000000009408 54.465000000009411 54.470000000009414 54.475000000009416 54.480000000009419 54.485000000009421 54.490000000009424 54.495000000009426 54.500000000009429 54.505000000009431 54.510000000009434 54.515000000009437 54.520000000009439 54.525000000009442 54.530000000009444 54.535000000009447 54.540000000009449 54.545000000009452 54.550000000009454 54.555000000009457 54.560000000009460 54.565000000009462 54.570000000009465 54.575000000009467 54.580000000009470 54.585000000009472 54.590000000009475 54.595000000009478 54.600000000009480 54.605000000009483 54.610000000009485 54.615000000009488 54.620000000009490 54.625000000009493 54.630000000009495 54.635000000009498 54.640000000009501 54.645000000009503 54.650000000009506 54.655000000009508 54.660000000009511 54.665000000009513 54.670000000009516 54.675000000009518 54.680000000009521 54.685000000009524 54.690000000009526 54.695000000009529 54.700000000009531 54.705000000009534 54.710000000009536 54.715000000009539 54.720000000009541 54.725000000009544 54.730000000009547 54.735000000009549 54.740000000009552 54.745000000009554 54.750000000009557 54.755000000009559 54.760000000009562 54.765000000009564 54.770000000009567 54.775000000009570 54.780000000009572 54.785000000009575 54.790000000009577 54.795000000009580 54.800000000009582 54.805000000009585 54.810000000009587 54.815000000009590 54.820000000009593 54.825000000009595 54.830000000009598 54.835000000009600 54.840000000009603 54.845000000009605 54.850000000009608 54.855000000009611 54.860000000009613 54.865000000009616 54.870000000009618 54.875000000009621 54.880000000009623 54.885000000009626 54.890000000009628 54.895000000009631 54.900000000009634 54.905000000009636 54.910000000009639 54.915000000009641 54.920000000009644 54.925000000009646 54.930000000009649 54.935000000009651 54.940000000009654 54.945000000009657 54.950000000009659 54.955000000009662 54.960000000009664 54.965000000009667 54.970000000009669 54.975000000009672 54.980000000009674 54.985000000009677 54.990000000009680 54.995000000009682 55.000000000009685 55.005000000009687 55.010000000009690 55.015000000009692 55.020000000009695 55.025000000009697 55.030000000009700 55.035000000009703 55.040000000009705 55.045000000009708 55.050000000009710 55.055000000009713 55.060000000009715 55.065000000009718 55.070000000009721 55.075000000009723 55.080000000009726 55.085000000009728 55.090000000009731 55.095000000009733 55.100000000009736 55.105000000009738 55.110000000009741 55.115000000009744 55.120000000009746 55.125000000009749 55.130000000009751 55.135000000009754 55.140000000009756 55.145000000009759 55.150000000009761 55.155000000009764 55.160000000009767 55.165000000009769 55.170000000009772 55.175000000009774 55.180000000009777 55.185000000009779 55.190000000009782 55.195000000009784 55.200000000009787 55.205000000009790 55.210000000009792 55.215000000009795 55.220000000009797 55.225000000009800 55.230000000009802 55.235000000009805 55.240000000009807 55.245000000009810 55.250000000009813 55.255000000009815 55.260000000009818 55.265000000009820 55.270000000009823 55.275000000009825 55.280000000009828 55.285000000009831 55.290000000009833 55.295000000009836 55.300000000009838 55.305000000009841 55.310000000009843 55.315000000009846 55.320000000009848 55.325000000009851 55.330000000009854 55.335000000009856 55.340000000009859 55.345000000009861 55.350000000009864 55.355000000009866 55.360000000009869 55.365000000009871 55.370000000009874 55.375000000009877 55.380000000009879 55.385000000009882 55.390000000009884 55.395000000009887 55.400000000009889 55.405000000009892 55.410000000009894 55.415000000009897 55.420000000009900 55.425000000009902 55.430000000009905 55.435000000009907 55.440000000009910 55.445000000009912 55.450000000009915 55.455000000009917 55.460000000009920 55.465000000009923 55.470000000009925 55.475000000009928 55.480000000009930 55.485000000009933 55.490000000009935 55.495000000009938 55.500000000009940 55.505000000009943 55.510000000009946 55.515000000009948 55.520000000009951 55.525000000009953 55.530000000009956 55.535000000009958 55.540000000009961 55.545000000009964 55.550000000009966 55.555000000009969 55.560000000009971 55.565000000009974 55.570000000009976 55.575000000009979 55.580000000009981 55.585000000009984 55.590000000009987 55.595000000009989 55.600000000009992 55.605000000009994 55.610000000009997 55.615000000009999 55.620000000010002 55.625000000010004 55.630000000010007 55.635000000010010 55.640000000010012 55.645000000010015 55.650000000010017 55.655000000010020 55.660000000010022 55.665000000010025 55.670000000010027 55.675000000010030 55.680000000010033 55.685000000010035 55.690000000010038 55.695000000010040 55.700000000010043 55.705000000010045 55.710000000010048 55.715000000010050 55.720000000010053 55.725000000010056 55.730000000010058 55.735000000010061 55.740000000010063 55.745000000010066 55.750000000010068 55.755000000010071 55.760000000010074 55.765000000010076 55.770000000010079 55.775000000010081 55.780000000010084 55.785000000010086 55.790000000010089 55.795000000010091 55.800000000010094 55.805000000010097 55.810000000010099 55.815000000010102 55.820000000010104 55.825000000010107 55.830000000010109 55.835000000010112 55.840000000010114 55.845000000010117 55.850000000010120 55.855000000010122 55.860000000010125 55.865000000010127 55.870000000010130 55.875000000010132 55.880000000010135 55.885000000010137 55.890000000010140 55.895000000010143 55.900000000010145 55.905000000010148 55.910000000010150 55.915000000010153 55.920000000010155 55.925000000010158 55.930000000010160 55.935000000010163 55.940000000010166 55.945000000010168 55.950000000010171 55.955000000010173 55.960000000010176 55.965000000010178 55.970000000010181 55.975000000010183 55.980000000010186 55.985000000010189 55.990000000010191 55.995000000010194 56.000000000010196 56.005000000010199 56.010000000010201 56.015000000010204 56.020000000010207 56.025000000010209 56.030000000010212 56.035000000010214 56.040000000010217 56.045000000010219 56.050000000010222 56.055000000010224 56.060000000010227 56.065000000010230 56.070000000010232 56.075000000010235 56.080000000010237 56.085000000010240 56.090000000010242 56.095000000010245 56.100000000010247 56.105000000010250 56.110000000010253 56.115000000010255 56.120000000010258 56.125000000010260 56.130000000010263 56.135000000010265 56.140000000010268 56.145000000010270 56.150000000010273 56.155000000010276 56.160000000010278 56.165000000010281 56.170000000010283 56.175000000010286 56.180000000010288 56.185000000010291 56.190000000010293 56.195000000010296 56.200000000010299 56.205000000010301 56.210000000010304 56.215000000010306 56.220000000010309 56.225000000010311 56.230000000010314 56.235000000010317 56.240000000010319 56.245000000010322 56.250000000010324 56.255000000010327 56.260000000010329 56.265000000010332 56.270000000010334 56.275000000010337 56.280000000010340 56.285000000010342 56.290000000010345 56.295000000010347 56.300000000010350 56.305000000010352 56.310000000010355 56.315000000010357 56.320000000010360 56.325000000010363 56.330000000010365 56.335000000010368 56.340000000010370 56.345000000010373 56.350000000010375 56.355000000010378 56.360000000010380 56.365000000010383 56.370000000010386 56.375000000010388 56.380000000010391 56.385000000010393 56.390000000010396 56.395000000010398 56.400000000010401 56.405000000010403 56.410000000010406 56.415000000010409 56.420000000010411 56.425000000010414 56.430000000010416 56.435000000010419 56.440000000010421 56.445000000010424 56.450000000010427 56.455000000010429 56.460000000010432 56.465000000010434 56.470000000010437 56.475000000010439 56.480000000010442 56.485000000010444 56.490000000010447 56.495000000010450 56.500000000010452 56.505000000010455 56.510000000010457 56.515000000010460 56.520000000010462 56.525000000010465 56.530000000010467 56.535000000010470 56.540000000010473 56.545000000010475 56.550000000010478 56.555000000010480 56.560000000010483 56.565000000010485 56.570000000010488 56.575000000010490 56.580000000010493 56.585000000010496 56.590000000010498 56.595000000010501 56.600000000010503 56.605000000010506 56.610000000010508 56.615000000010511 56.620000000010513 56.625000000010516 56.630000000010519 56.635000000010521 56.640000000010524 56.645000000010526 56.650000000010529 56.655000000010531 56.660000000010534 56.665000000010536 56.670000000010539 56.675000000010542 56.680000000010544 56.685000000010547 56.690000000010549 56.695000000010552 56.700000000010554 56.705000000010557 56.710000000010560 56.715000000010562 56.720000000010565 56.725000000010567 56.730000000010570 56.735000000010572 56.740000000010575 56.745000000010577 56.750000000010580 56.755000000010583 56.760000000010585 56.765000000010588 56.770000000010590 56.775000000010593 56.780000000010595 56.785000000010598 56.790000000010600 56.795000000010603 56.800000000010606 56.805000000010608 56.810000000010611 56.815000000010613 56.820000000010616 56.825000000010618 56.830000000010621 56.835000000010623 56.840000000010626 56.845000000010629 56.850000000010631 56.855000000010634 56.860000000010636 56.865000000010639 56.870000000010641 56.875000000010644 56.880000000010646 56.885000000010649 56.890000000010652 56.895000000010654 56.900000000010657 56.905000000010659 56.910000000010662 56.915000000010664 56.920000000010667 56.925000000010670 56.930000000010672 56.935000000010675 56.940000000010677 56.945000000010680 56.950000000010682 56.955000000010685 56.960000000010687 56.965000000010690 56.970000000010693 56.975000000010695 56.980000000010698 56.985000000010700 56.990000000010703 56.995000000010705 57.000000000010708 57.005000000010710 57.010000000010713 57.015000000010716 57.020000000010718 57.025000000010721 57.030000000010723 57.035000000010726 57.040000000010728 57.045000000010731 57.050000000010733 57.055000000010736 57.060000000010739 57.065000000010741 57.070000000010744 57.075000000010746 57.080000000010749 57.085000000010751 57.090000000010754 57.095000000010756 57.100000000010759 57.105000000010762 57.110000000010764 57.115000000010767 57.120000000010769 57.125000000010772 57.130000000010774 57.135000000010777 57.140000000010780 57.145000000010782 57.150000000010785 57.155000000010787 57.160000000010790 57.165000000010792 57.170000000010795 57.175000000010797 57.180000000010800 57.185000000010803 57.190000000010805 57.195000000010808 57.200000000010810 57.205000000010813 57.210000000010815 57.215000000010818 57.220000000010820 57.225000000010823 57.230000000010826 57.235000000010828 57.240000000010831 57.245000000010833 57.250000000010836 57.255000000010838 57.260000000010841 57.265000000010843 57.270000000010846 57.275000000010849 57.280000000010851 57.285000000010854 57.290000000010856 57.295000000010859 57.300000000010861 57.305000000010864 57.310000000010866 57.315000000010869 57.320000000010872 57.325000000010874 57.330000000010877 57.335000000010879 57.340000000010882 57.345000000010884 57.350000000010887 57.355000000010889 57.360000000010892 57.365000000010895 57.370000000010897 57.375000000010900 57.380000000010902 57.385000000010905 57.390000000010907 57.395000000010910 57.400000000010913 57.405000000010915 57.410000000010918 57.415000000010920 57.420000000010923 57.425000000010925 57.430000000010928 57.435000000010930 57.440000000010933 57.445000000010936 57.450000000010938 57.455000000010941 57.460000000010943 57.465000000010946 57.470000000010948 57.475000000010951 57.480000000010953 57.485000000010956 57.490000000010959 57.495000000010961 57.500000000010964 57.505000000010966 57.510000000010969 57.515000000010971 57.520000000010974 57.525000000010976 57.530000000010979 57.535000000010982 57.540000000010984 57.545000000010987 57.550000000010989 57.555000000010992 57.560000000010994 57.565000000010997 57.570000000010999 57.575000000011002 57.580000000011005 57.585000000011007 57.590000000011010 57.595000000011012 57.600000000011015 57.605000000011017 57.610000000011020 57.615000000011023 57.620000000011025 57.625000000011028 57.630000000011030 57.635000000011033 57.640000000011035 57.645000000011038 57.650000000011040 57.655000000011043 57.660000000011046 57.665000000011048 57.670000000011051 57.675000000011053 57.680000000011056 57.685000000011058 57.690000000011061 57.695000000011063 57.700000000011066 57.705000000011069 57.710000000011071 57.715000000011074 57.720000000011076 57.725000000011079 57.730000000011081 57.735000000011084 57.740000000011086 57.745000000011089 57.750000000011092 57.755000000011094 57.760000000011097 57.765000000011099 57.770000000011102 57.775000000011104 57.780000000011107 57.785000000011109 57.790000000011112 57.795000000011115 57.800000000011117 57.805000000011120 