<VTKFile type='UnstructuredGrid' version='0.1' byte_order='LittleEndian'>
<!-- curve_tsucs2.csv -->
  <UnstructuredGrid>
    <Piece NumberOfPoints='10001' NumberOfCells='10000'>
      <PointData Scalars='time x y z' Vectors='derivative'>
        <DataArray Name='time' type='Float64' format='ascii' NumberOfComponents='1'>
          40.000999999997475 40.001999999997473 40.002999999997471 40.003999999997468 40.004999999997466 40.005999999997464 40.006999999997461 40.007999999997459 40.008999999997457 40.009999999997454 40.010999999997452 40.011999999997450 40.012999999997447 40.013999999997445 40.014999999997443 40.015999999997440 40.016999999997438 40.017999999997436 40.018999999997433 40.019999999997431 40.020999999997429 40.021999999997426 40.022999999997424 40.023999999997422 40.024999999997419 40.025999999997417 40.026999999997415 40.027999999997412 40.028999999997410 40.029999999997408 40.030999999997405 40.031999999997403 40.032999999997401 40.033999999997398 40.034999999997396 40.035999999997394 40.036999999997391 40.037999999997389 40.038999999997387 40.039999999997384 40.040999999997382 40.041999999997380 40.042999999997377 40.043999999997375 40.044999999997373 40.045999999997370 40.046999999997368 40.047999999997366 40.048999999997363 40.049999999997361 40.050999999997359 40.051999999997356 40.052999999997354 40.053999999997352 40.054999999997349 40.055999999997347 40.056999999997345 40.057999999997342 40.058999999997340 40.059999999997338 40.060999999997335 40.061999999997333 40.062999999997331 40.063999999997328 40.064999999997326 40.065999999997324 40.066999999997321 40.067999999997319 40.068999999997317 40.069999999997314 40.070999999997312 40.071999999997310 40.072999999997307 40.073999999997305 40.074999999997303 40.075999999997300 40.076999999997298 40.077999999997296 40.078999999997293 40.079999999997291 40.080999999997289 40.081999999997286 40.082999999997284 40.083999999997282 40.084999999997279 40.085999999997277 40.086999999997275 40.087999999997272 40.088999999997270 40.089999999997268 40.090999999997265 40.091999999997263 40.092999999997261 40.093999999997258 40.094999999997256 40.095999999997254 40.096999999997252 40.097999999997249 40.098999999997247 40.099999999997245 40.100999999997242 40.101999999997240 40.102999999997238 40.103999999997235 40.104999999997233 40.105999999997231 40.106999999997228 40.107999999997226 40.108999999997224 40.109999999997221 40.110999999997219 40.111999999997217 40.112999999997214 40.113999999997212 40.114999999997210 40.115999999997207 40.116999999997205 40.117999999997203 40.118999999997200 40.119999999997198 40.120999999997196 40.121999999997193 40.122999999997191 40.123999999997189 40.124999999997186 40.125999999997184 40.126999999997182 40.127999999997179 40.128999999997177 40.129999999997175 40.130999999997172 40.131999999997170 40.132999999997168 40.133999999997165 40.134999999997163 40.135999999997161 40.136999999997158 40.137999999997156 40.138999999997154 40.139999999997151 40.140999999997149 40.141999999997147 40.142999999997144 40.143999999997142 40.144999999997140 40.145999999997137 40.146999999997135 40.147999999997133 40.148999999997130 40.149999999997128 40.150999999997126 40.151999999997123 40.152999999997121 40.153999999997119 40.154999999997116 40.155999999997114 40.156999999997112 40.157999999997109 40.158999999997107 40.159999999997105 40.160999999997102 40.161999999997100 40.162999999997098 40.163999999997095 40.164999999997093 40.165999999997091 40.166999999997088 40.167999999997086 40.168999999997084 40.169999999997081 40.170999999997079 40.171999999997077 40.172999999997074 40.173999999997072 40.174999999997070 40.175999999997067 40.176999999997065 40.177999999997063 40.178999999997060 40.179999999997058 40.180999999997056 40.181999999997053 40.182999999997051 40.183999999997049 40.184999999997046 40.185999999997044 40.186999999997042 40.187999999997039 40.188999999997037 40.189999999997035 40.190999999997032 40.191999999997030 40.192999999997028 40.193999999997025 40.194999999997023 40.195999999997021 40.196999999997018 40.197999999997016 40.198999999997014 40.199999999997011 40.200999999997009 40.201999999997007 40.202999999997004 40.203999999997002 40.204999999997000 40.205999999996997 40.206999999996995 40.207999999996993 40.208999999996990 40.209999999996988 40.210999999996986 40.211999999996983 40.212999999996981 40.213999999996979 40.214999999996976 40.215999999996974 40.216999999996972 40.217999999996970 40.218999999996967 40.219999999996965 40.220999999996963 40.221999999996960 40.222999999996958 40.223999999996956 40.224999999996953 40.225999999996951 40.226999999996949 40.227999999996946 40.228999999996944 40.229999999996942 40.230999999996939 40.231999999996937 40.232999999996935 40.233999999996932 40.234999999996930 40.235999999996928 40.236999999996925 40.237999999996923 40.238999999996921 40.239999999996918 40.240999999996916 40.241999999996914 40.242999999996911 40.243999999996909 40.244999999996907 40.245999999996904 40.246999999996902 40.247999999996900 40.248999999996897 40.249999999996895 40.250999999996893 40.251999999996890 40.252999999996888 40.253999999996886 40.254999999996883 40.255999999996881 40.256999999996879 40.257999999996876 40.258999999996874 40.259999999996872 40.260999999996869 40.261999999996867 40.262999999996865 40.263999999996862 40.264999999996860 40.265999999996858 40.266999999996855 40.267999999996853 40.268999999996851 40.269999999996848 40.270999999996846 40.271999999996844 40.272999999996841 40.273999999996839 40.274999999996837 40.275999999996834 40.276999999996832 40.277999999996830 40.278999999996827 40.279999999996825 40.280999999996823 40.281999999996820 40.282999999996818 40.283999999996816 40.284999999996813 40.285999999996811 40.286999999996809 40.287999999996806 40.288999999996804 40.289999999996802 40.290999999996799 40.291999999996797 40.292999999996795 40.293999999996792 40.294999999996790 40.295999999996788 40.296999999996785 40.297999999996783 40.298999999996781 40.299999999996778 40.300999999996776 40.301999999996774 40.302999999996771 40.303999999996769 40.304999999996767 40.305999999996764 40.306999999996762 40.307999999996760 40.308999999996757 40.309999999996755 40.310999999996753 40.311999999996750 40.312999999996748 40.313999999996746 40.314999999996743 40.315999999996741 40.316999999996739 40.317999999996736 40.318999999996734 40.319999999996732 40.320999999996729 40.321999999996727 40.322999999996725 40.323999999996722 40.324999999996720 40.325999999996718 40.326999999996715 40.327999999996713 40.328999999996711 40.329999999996708 40.330999999996706 40.331999999996704 40.332999999996701 40.333999999996699 40.334999999996697 40.335999999996694 40.336999999996692 40.337999999996690 40.338999999996688 40.339999999996685 40.340999999996683 40.341999999996681 40.342999999996678 40.343999999996676 40.344999999996674 40.345999999996671 40.346999999996669 40.347999999996667 40.348999999996664 40.349999999996662 40.350999999996660 40.351999999996657 40.352999999996655 40.353999999996653 40.354999999996650 40.355999999996648 40.356999999996646 40.357999999996643 40.358999999996641 40.359999999996639 40.360999999996636 40.361999999996634 40.362999999996632 40.363999999996629 40.364999999996627 40.365999999996625 40.366999999996622 40.367999999996620 40.368999999996618 40.369999999996615 40.370999999996613 40.371999999996611 40.372999999996608 40.373999999996606 40.374999999996604 40.375999999996601 40.376999999996599 40.377999999996597 40.378999999996594 40.379999999996592 40.380999999996590 40.381999999996587 40.382999999996585 40.383999999996583 40.384999999996580 40.385999999996578 40.386999999996576 40.387999999996573 40.388999999996571 40.389999999996569 40.390999999996566 40.391999999996564 40.392999999996562 40.393999999996559 40.394999999996557 40.395999999996555 40.396999999996552 40.397999999996550 40.398999999996548 40.399999999996545 40.400999999996543 40.401999999996541 40.402999999996538 40.403999999996536 40.404999999996534 40.405999999996531 40.406999999996529 40.407999999996527 40.408999999996524 40.409999999996522 40.410999999996520 40.411999999996517 40.412999999996515 40.413999999996513 40.414999999996510 40.415999999996508 40.416999999996506 40.417999999996503 40.418999999996501 40.419999999996499 40.420999999996496 40.421999999996494 40.422999999996492 40.423999999996489 40.424999999996487 40.425999999996485 40.426999999996482 40.427999999996480 40.428999999996478 40.429999999996475 40.430999999996473 40.431999999996471 40.432999999996468 40.433999999996466 40.434999999996464 40.435999999996461 40.436999999996459 40.437999999996457 40.438999999996454 40.439999999996452 40.440999999996450 40.441999999996447 40.442999999996445 40.443999999996443 40.444999999996440 40.445999999996438 40.446999999996436 40.447999999996433 40.448999999996431 40.449999999996429 40.450999999996426 40.451999999996424 40.452999999996422 40.453999999996419 40.454999999996417 40.455999999996415 40.456999999996412 40.457999999996410 40.458999999996408 40.459999999996406 40.460999999996403 40.461999999996401 40.462999999996399 40.463999999996396 40.464999999996394 40.465999999996392 40.466999999996389 40.467999999996387 40.468999999996385 40.469999999996382 40.470999999996380 40.471999999996378 40.472999999996375 40.473999999996373 40.474999999996371 40.475999999996368 40.476999999996366 40.477999999996364 40.478999999996361 40.479999999996359 40.480999999996357 40.481999999996354 40.482999999996352 40.483999999996350 40.484999999996347 40.485999999996345 40.486999999996343 40.487999999996340 40.488999999996338 40.489999999996336 40.490999999996333 40.491999999996331 40.492999999996329 40.493999999996326 40.494999999996324 40.495999999996322 40.496999999996319 40.497999999996317 40.498999999996315 40.499999999996312 40.500999999996310 40.501999999996308 40.502999999996305 40.503999999996303 40.504999999996301 40.505999999996298 40.506999999996296 40.507999999996294 40.508999999996291 40.509999999996289 40.510999999996287 40.511999999996284 40.512999999996282 40.513999999996280 40.514999999996277 40.515999999996275 40.516999999996273 40.517999999996270 40.518999999996268 40.519999999996266 40.520999999996263 40.521999999996261 40.522999999996259 40.523999999996256 40.524999999996254 40.525999999996252 40.526999999996249 40.527999999996247 40.528999999996245 40.529999999996242 40.530999999996240 40.531999999996238 40.532999999996235 40.533999999996233 40.534999999996231 40.535999999996228 40.536999999996226 40.537999999996224 40.538999999996221 40.539999999996219 40.540999999996217 40.541999999996214 40.542999999996212 40.543999999996210 40.544999999996207 40.545999999996205 40.546999999996203 40.547999999996200 40.548999999996198 40.549999999996196 40.550999999996193 40.551999999996191 40.552999999996189 40.553999999996186 40.554999999996184 40.555999999996182 40.556999999996179 40.557999999996177 40.558999999996175 40.559999999996172 40.560999999996170 40.561999999996168 40.562999999996165 40.563999999996163 40.564999999996161 40.565999999996158 40.566999999996156 40.567999999996154 40.568999999996151 40.569999999996149 40.570999999996147 40.571999999996144 40.572999999996142 40.573999999996140 40.574999999996137 40.575999999996135 40.576999999996133 40.577999999996130 40.578999999996128 40.579999999996126 40.580999999996124 40.581999999996121 40.582999999996119 40.583999999996117 40.584999999996114 40.585999999996112 40.586999999996110 40.587999999996107 40.588999999996105 40.589999999996103 40.590999999996100 40.591999999996098 40.592999999996096 40.593999999996093 40.594999999996091 40.595999999996089 40.596999999996086 40.597999999996084 40.598999999996082 40.599999999996079 40.600999999996077 40.601999999996075 40.602999999996072 40.603999999996070 40.604999999996068 40.605999999996065 40.606999999996063 40.607999999996061 40.608999999996058 40.609999999996056 40.610999999996054 40.611999999996051 40.612999999996049 40.613999999996047 40.614999999996044 40.615999999996042 40.616999999996040 40.617999999996037 40.618999999996035 40.619999999996033 40.620999999996030 40.621999999996028 40.622999999996026 40.623999999996023 40.624999999996021 40.625999999996019 40.626999999996016 40.627999999996014 40.628999999996012 40.629999999996009 40.630999999996007 40.631999999996005 40.632999999996002 40.633999999996000 40.634999999995998 40.635999999995995 40.636999999995993 40.637999999995991 40.638999999995988 40.639999999995986 40.640999999995984 40.641999999995981 40.642999999995979 40.643999999995977 40.644999999995974 40.645999999995972 40.646999999995970 40.647999999995967 40.648999999995965 40.649999999995963 40.650999999995960 40.651999999995958 40.652999999995956 40.653999999995953 40.654999999995951 40.655999999995949 40.656999999995946 40.657999999995944 40.658999999995942 40.659999999995939 40.660999999995937 40.661999999995935 40.662999999995932 40.663999999995930 40.664999999995928 40.665999999995925 40.666999999995923 40.667999999995921 40.668999999995918 40.669999999995916 40.670999999995914 40.671999999995911 40.672999999995909 40.673999999995907 40.674999999995904 40.675999999995902 40.676999999995900 40.677999999995897 40.678999999995895 40.679999999995893 40.680999999995890 40.681999999995888 40.682999999995886 40.683999999995883 40.684999999995881 40.685999999995879 40.686999999995876 40.687999999995874 40.688999999995872 40.689999999995869 40.690999999995867 40.691999999995865 40.692999999995862 40.693999999995860 40.694999999995858 40.695999999995855 40.696999999995853 40.697999999995851 40.698999999995848 40.699999999995846 40.700999999995844 40.701999999995842 40.702999999995839 40.703999999995837 40.704999999995835 40.705999999995832 40.706999999995830 40.707999999995828 40.708999999995825 40.709999999995823 40.710999999995821 40.711999999995818 40.712999999995816 40.713999999995814 40.714999999995811 40.715999999995809 40.716999999995807 40.717999999995804 40.718999999995802 40.719999999995800 40.720999999995797 40.721999999995795 40.722999999995793 40.723999999995790 40.724999999995788 40.725999999995786 40.726999999995783 40.727999999995781 40.728999999995779 40.729999999995776 40.730999999995774 40.731999999995772 40.732999999995769 40.733999999995767 40.734999999995765 40.735999999995762 40.736999999995760 40.737999999995758 40.738999999995755 40.739999999995753 40.740999999995751 40.741999999995748 40.742999999995746 40.743999999995744 40.744999999995741 40.745999999995739 40.746999999995737 40.747999999995734 40.748999999995732 40.749999999995730 40.750999999995727 40.751999999995725 40.752999999995723 40.753999999995720 40.754999999995718 40.755999999995716 40.756999999995713 40.757999999995711 40.758999999995709 40.759999999995706 40.760999999995704 40.761999999995702 40.762999999995699 40.763999999995697 40.764999999995695 40.765999999995692 40.766999999995690 40.767999999995688 40.768999999995685 40.769999999995683 40.770999999995681 40.771999999995678 40.772999999995676 40.773999999995674 40.774999999995671 40.775999999995669 40.776999999995667 40.777999999995664 40.778999999995662 40.779999999995660 40.780999999995657 40.781999999995655 40.782999999995653 40.783999999995650 40.784999999995648 40.785999999995646 40.786999999995643 40.787999999995641 40.788999999995639 40.789999999995636 40.790999999995634 40.791999999995632 40.792999999995629 40.793999999995627 40.794999999995625 40.795999999995622 40.796999999995620 40.797999999995618 40.798999999995615 40.799999999995613 40.800999999995611 40.801999999995608 40.802999999995606 40.803999999995604 40.804999999995601 40.805999999995599 40.806999999995597 40.807999999995594 40.808999999995592 40.809999999995590 40.810999999995587 40.811999999995585 40.812999999995583 40.813999999995580 40.814999999995578 40.815999999995576 40.816999999995573 40.817999999995571 40.818999999995569 40.819999999995566 40.820999999995564 40.821999999995562 40.822999999995560 40.823999999995557 40.824999999995555 40.825999999995553 40.826999999995550 40.827999999995548 40.828999999995546 40.829999999995543 40.830999999995541 40.831999999995539 40.832999999995536 40.833999999995534 40.834999999995532 40.835999999995529 40.836999999995527 40.837999999995525 40.838999999995522 40.839999999995520 40.840999999995518 40.841999999995515 40.842999999995513 40.843999999995511 40.844999999995508 40.845999999995506 40.846999999995504 40.847999999995501 40.848999999995499 40.849999999995497 40.850999999995494 40.851999999995492 40.852999999995490 40.853999999995487 40.854999999995485 40.855999999995483 40.856999999995480 40.857999999995478 40.858999999995476 40.859999999995473 40.860999999995471 40.861999999995469 40.862999999995466 40.863999999995464 40.864999999995462 40.865999999995459 40.866999999995457 40.867999999995455 40.868999999995452 40.869999999995450 40.870999999995448 40.871999999995445 40.872999999995443 40.873999999995441 40.874999999995438 40.875999999995436 40.876999999995434 40.877999999995431 40.878999999995429 40.879999999995427 40.880999999995424 40.881999999995422 40.882999999995420 40.883999999995417 40.884999999995415 40.885999999995413 40.886999999995410 40.887999999995408 40.888999999995406 40.889999999995403 40.890999999995401 40.891999999995399 40.892999999995396 40.893999999995394 40.894999999995392 40.895999999995389 40.896999999995387 40.897999999995385 40.898999999995382 40.899999999995380 40.900999999995378 40.901999999995375 40.902999999995373 40.903999999995371 40.904999999995368 40.905999999995366 40.906999999995364 40.907999999995361 40.908999999995359 40.909999999995357 40.910999999995354 40.911999999995352 40.912999999995350 40.913999999995347 40.914999999995345 40.915999999995343 40.916999999995340 40.917999999995338 40.918999999995336 40.919999999995333 40.920999999995331 40.921999999995329 40.922999999995326 40.923999999995324 40.924999999995322 40.925999999995319 40.926999999995317 40.927999999995315 40.928999999995312 40.929999999995310 40.930999999995308 40.931999999995305 40.932999999995303 40.933999999995301 40.934999999995298 40.935999999995296 40.936999999995294 40.937999999995291 40.938999999995289 40.939999999995287 40.940999999995284 40.941999999995282 40.942999999995280 40.943999999995278 40.944999999995275 40.945999999995273 40.946999999995271 40.947999999995268 40.948999999995266 40.949999999995264 40.950999999995261 40.951999999995259 40.952999999995257 40.953999999995254 40.954999999995252 40.955999999995250 40.956999999995247 40.957999999995245 40.958999999995243 40.959999999995240 40.960999999995238 40.961999999995236 40.962999999995233 40.963999999995231 40.964999999995229 40.965999999995226 40.966999999995224 40.967999999995222 40.968999999995219 40.969999999995217 40.970999999995215 40.971999999995212 40.972999999995210 40.973999999995208 40.974999999995205 40.975999999995203 40.976999999995201 40.977999999995198 40.978999999995196 40.979999999995194 40.980999999995191 40.981999999995189 40.982999999995187 40.983999999995184 40.984999999995182 40.985999999995180 40.986999999995177 40.987999999995175 40.988999999995173 40.989999999995170 40.990999999995168 40.991999999995166 40.992999999995163 40.993999999995161 40.994999999995159 40.995999999995156 40.996999999995154 40.997999999995152 40.998999999995149 40.999999999995147 41.000999999995145 41.001999999995142 41.002999999995140 41.003999999995138 41.004999999995135 41.005999999995133 41.006999999995131 41.007999999995128 41.008999999995126 41.009999999995124 41.010999999995121 41.011999999995119 41.012999999995117 41.013999999995114 41.014999999995112 41.015999999995110 41.016999999995107 41.017999999995105 41.018999999995103 41.019999999995100 41.020999999995098 41.021999999995096 41.022999999995093 41.023999999995091 41.024999999995089 41.025999999995086 41.026999999995084 41.027999999995082 41.028999999995079 41.029999999995077 41.030999999995075 41.031999999995072 41.032999999995070 41.033999999995068 41.034999999995065 41.035999999995063 41.036999999995061 41.037999999995058 41.038999999995056 41.039999999995054 41.040999999995051 41.041999999995049 41.042999999995047 41.043999999995044 41.044999999995042 41.045999999995040 41.046999999995037 41.047999999995035 41.048999999995033 41.049999999995030 41.050999999995028 41.051999999995026 41.052999999995023 41.053999999995021 41.054999999995019 41.055999999995016 41.056999999995014 41.057999999995012 41.058999999995009 41.059999999995007 41.060999999995005 41.061999999995002 41.062999999995000 41.063999999994998 41.064999999994996 41.065999999994993 41.066999999994991 41.067999999994989 41.068999999994986 41.069999999994984 41.070999999994982 41.071999999994979 41.072999999994977 41.073999999994975 41.074999999994972 41.075999999994970 41.076999999994968 41.077999999994965 41.078999999994963 41.079999999994961 41.080999999994958 41.081999999994956 41.082999999994954 41.083999999994951 41.084999999994949 41.085999999994947 41.086999999994944 41.087999999994942 41.088999999994940 41.089999999994937 41.090999999994935 41.091999999994933 41.092999999994930 41.093999999994928 41.094999999994926 41.095999999994923 41.096999999994921 41.097999999994919 41.098999999994916 41.099999999994914 41.100999999994912 41.101999999994909 41.102999999994907 41.103999999994905 41.104999999994902 41.105999999994900 41.106999999994898 41.107999999994895 41.108999999994893 41.109999999994891 41.110999999994888 41.111999999994886 41.112999999994884 41.113999999994881 41.114999999994879 41.115999999994877 41.116999999994874 41.117999999994872 41.118999999994870 41.119999999994867 41.120999999994865 41.121999999994863 41.122999999994860 41.123999999994858 41.124999999994856 41.125999999994853 41.126999999994851 41.127999999994849 41.128999999994846 41.129999999994844 41.130999999994842 41.131999999994839 41.132999999994837 41.133999999994835 41.134999999994832 41.135999999994830 41.136999999994828 41.137999999994825 41.138999999994823 41.139999999994821 41.140999999994818 41.141999999994816 41.142999999994814 41.143999999994811 41.144999999994809 41.145999999994807 41.146999999994804 41.147999999994802 41.148999999994800 41.149999999994797 41.150999999994795 41.151999999994793 41.152999999994790 41.153999999994788 41.154999999994786 41.155999999994783 41.156999999994781 41.157999999994779 41.158999999994776 41.159999999994774 41.160999999994772 41.161999999994769 41.162999999994767 41.163999999994765 41.164999999994762 41.165999999994760 41.166999999994758 41.167999999994755 41.168999999994753 41.169999999994751 41.170999999994748 41.171999999994746 41.172999999994744 41.173999999994741 41.174999999994739 41.175999999994737 41.176999999994734 41.177999999994732 41.178999999994730 41.179999999994727 41.180999999994725 41.181999999994723 41.182999999994720 41.183999999994718 41.184999999994716 41.185999999994714 41.186999999994711 41.187999999994709 41.188999999994707 41.189999999994704 41.190999999994702 41.191999999994700 41.192999999994697 41.193999999994695 41.194999999994693 41.195999999994690 41.196999999994688 41.197999999994686 41.198999999994683 41.199999999994681 41.200999999994679 41.201999999994676 41.202999999994674 41.203999999994672 41.204999999994669 41.205999999994667 41.206999999994665 41.207999999994662 41.208999999994660 41.209999999994658 41.210999999994655 41.211999999994653 41.212999999994651 41.213999999994648 41.214999999994646 41.215999999994644 41.216999999994641 41.217999999994639 41.218999999994637 41.219999999994634 41.220999999994632 41.221999999994630 41.222999999994627 41.223999999994625 41.224999999994623 41.225999999994620 41.226999999994618 41.227999999994616 41.228999999994613 41.229999999994611 41.230999999994609 41.231999999994606 41.232999999994604 41.233999999994602 41.234999999994599 41.235999999994597 41.236999999994595 41.237999999994592 41.238999999994590 41.239999999994588 41.240999999994585 41.241999999994583 41.242999999994581 41.243999999994578 41.244999999994576 41.245999999994574 41.246999999994571 41.247999999994569 41.248999999994567 41.249999999994564 41.250999999994562 41.251999999994560 41.252999999994557 41.253999999994555 41.254999999994553 41.255999999994550 41.256999999994548 41.257999999994546 41.258999999994543 41.259999999994541 41.260999999994539 41.261999999994536 41.262999999994534 41.263999999994532 41.264999999994529 41.265999999994527 41.266999999994525 41.267999999994522 41.268999999994520 41.269999999994518 41.270999999994515 41.271999999994513 41.272999999994511 41.273999999994508 41.274999999994506 41.275999999994504 41.276999999994501 41.277999999994499 41.278999999994497 41.279999999994494 41.280999999994492 41.281999999994490 41.282999999994487 41.283999999994485 41.284999999994483 41.285999999994480 41.286999999994478 41.287999999994476 41.288999999994473 41.289999999994471 41.290999999994469 41.291999999994466 41.292999999994464 41.293999999994462 41.294999999994459 41.295999999994457 41.296999999994455 41.297999999994452 41.298999999994450 41.299999999994448 41.300999999994445 41.301999999994443 41.302999999994441 41.303999999994438 41.304999999994436 41.305999999994434 41.306999999994432 41.307999999994429 41.308999999994427 41.309999999994425 41.310999999994422 41.311999999994420 41.312999999994418 41.313999999994415 41.314999999994413 41.315999999994411 41.316999999994408 41.317999999994406 41.318999999994404 41.319999999994401 41.320999999994399 41.321999999994397 41.322999999994394 41.323999999994392 41.324999999994390 41.325999999994387 41.326999999994385 41.327999999994383 41.328999999994380 41.329999999994378 41.330999999994376 41.331999999994373 41.332999999994371 41.333999999994369 41.334999999994366 41.335999999994364 41.336999999994362 41.337999999994359 41.338999999994357 41.339999999994355 41.340999999994352 41.341999999994350 41.342999999994348 41.343999999994345 41.344999999994343 41.345999999994341 41.346999999994338 41.347999999994336 41.348999999994334 41.349999999994331 41.350999999994329 41.351999999994327 41.352999999994324 41.353999999994322 41.354999999994320 41.355999999994317 41.356999999994315 41.357999999994313 41.358999999994310 41.359999999994308 41.360999999994306 41.361999999994303 41.362999999994301 41.363999999994299 41.364999999994296 41.365999999994294 41.366999999994292 41.367999999994289 41.368999999994287 41.369999999994285 41.370999999994282 41.371999999994280 41.372999999994278 41.373999999994275 41.374999999994273 41.375999999994271 41.376999999994268 41.377999999994266 41.378999999994264 41.379999999994261 41.380999999994259 41.381999999994257 41.382999999994254 41.383999999994252 41.384999999994250 41.385999999994247 41.386999999994245 41.387999999994243 41.388999999994240 41.389999999994238 41.390999999994236 41.391999999994233 41.392999999994231 41.393999999994229 41.394999999994226 41.395999999994224 41.396999999994222 41.397999999994219 41.398999999994217 41.399999999994215 41.400999999994212 41.401999999994210 41.402999999994208 41.403999999994205 41.404999999994203 41.405999999994201 41.406999999994198 41.407999999994196 41.408999999994194 41.409999999994191 41.410999999994189 41.411999999994187 41.412999999994184 41.413999999994182 41.414999999994180 41.415999999994177 41.416999999994175 41.417999999994173 41.418999999994170 41.419999999994168 41.420999999994166 41.421999999994163 41.422999999994161 41.423999999994159 41.424999999994156 41.425999999994154 41.426999999994152 41.427999999994150 41.428999999994147 41.429999999994145 41.430999999994143 41.431999999994140 41.432999999994138 41.433999999994136 41.434999999994133 41.435999999994131 41.436999999994129 41.437999999994126 41.438999999994124 41.439999999994122 41.440999999994119 41.441999999994117 41.442999999994115 41.443999999994112 41.444999999994110 41.445999999994108 41.446999999994105 41.447999999994103 41.448999999994101 41.449999999994098 41.450999999994096 41.451999999994094 41.452999999994091 41.453999999994089 41.454999999994087 41.455999999994084 41.456999999994082 41.457999999994080 41.458999999994077 41.459999999994075 41.460999999994073 41.461999999994070 41.462999999994068 41.463999999994066 41.464999999994063 41.465999999994061 41.466999999994059 41.467999999994056 41.468999999994054 41.469999999994052 41.470999999994049 41.471999999994047 41.472999999994045 41.473999999994042 41.474999999994040 41.475999999994038 41.476999999994035 41.477999999994033 41.478999999994031 41.479999999994028 41.480999999994026 41.481999999994024 41.482999999994021 41.483999999994019 41.484999999994017 41.485999999994014 41.486999999994012 41.487999999994010 41.488999999994007 41.489999999994005 41.490999999994003 41.491999999994000 41.492999999993998 41.493999999993996 41.494999999993993 41.495999999993991 41.496999999993989 41.497999999993986 41.498999999993984 41.499999999993982 41.500999999993979 41.501999999993977 41.502999999993975 41.503999999993972 41.504999999993970 41.505999999993968 41.506999999993965 41.507999999993963 41.508999999993961 41.509999999993958 41.510999999993956 41.511999999993954 41.512999999993951 41.513999999993949 41.514999999993947 41.515999999993944 41.516999999993942 41.517999999993940 41.518999999993937 41.519999999993935 41.520999999993933 41.521999999993930 41.522999999993928 41.523999999993926 41.524999999993923 41.525999999993921 41.526999999993919 41.527999999993916 41.528999999993914 41.529999999993912 41.530999999993909 41.531999999993907 41.532999999993905 41.533999999993902 41.534999999993900 41.535999999993898 41.536999999993895 41.537999999993893 41.538999999993891 41.539999999993888 41.540999999993886 41.541999999993884 41.542999999993881 41.543999999993879 41.544999999993877 41.545999999993874 41.546999999993872 41.547999999993870 41.548999999993868 41.549999999993865 41.550999999993863 41.551999999993861 41.552999999993858 41.553999999993856 41.554999999993854 41.555999999993851 41.556999999993849 41.557999999993847 41.558999999993844 41.559999999993842 41.560999999993840 41