<VTKFile type='UnstructuredGrid' version='0.1' byte_order='LittleEndian'>
<!-- curve_dequan_li.csv -->
  <UnstructuredGrid>
    <Piece NumberOfPoints='10000' NumberOfCells='9999'>
      <PointData Scalars='time x y z' Vectors='derivative'>
        <DataArray Name='time' type='Float64' format='ascii' NumberOfComponents='1'>
          10.000999999999896 10.001999999999896 10.002999999999895 10.003999999999895 10.004999999999894 10.005999999999894 10.006999999999893 10.007999999999893 10.008999999999892 10.009999999999891 10.010999999999891 10.011999999999890 10.012999999999890 10.013999999999889 10.014999999999889 10.015999999999888 10.016999999999888 10.017999999999887 10.018999999999886 10.019999999999886 10.020999999999885 10.021999999999885 10.022999999999884 10.023999999999884 10.024999999999883 10.025999999999883 10.026999999999882 10.027999999999881 10.028999999999881 10.029999999999880 10.030999999999880 10.031999999999879 10.032999999999879 10.033999999999878 10.034999999999878 10.035999999999877 10.036999999999876 10.037999999999876 10.038999999999875 10.039999999999875 10.040999999999874 10.041999999999874 10.042999999999873 10.043999999999873 10.044999999999872 10.045999999999871 10.046999999999871 10.047999999999870 10.048999999999870 10.049999999999869 10.050999999999869 10.051999999999868 10.052999999999868 10.053999999999867 10.054999999999866 10.055999999999866 10.056999999999865 10.057999999999865 10.058999999999864 10.059999999999864 10.060999999999863 10.061999999999863 10.062999999999862 10.063999999999862 10.064999999999861 10.065999999999860 10.066999999999860 10.067999999999859 10.068999999999859 10.069999999999858 10.070999999999858 10.071999999999857 10.072999999999857 10.073999999999856 10.074999999999855 10.075999999999855 10.076999999999854 10.077999999999854 10.078999999999853 10.079999999999853 10.080999999999852 10.081999999999852 10.082999999999851 10.083999999999850 10.084999999999850 10.085999999999849 10.086999999999849 10.087999999999848 10.088999999999848 10.089999999999847 10.090999999999847 10.091999999999846 10.092999999999845 10.093999999999845 10.094999999999844 10.095999999999844 10.096999999999843 10.097999999999843 10.098999999999842 10.099999999999842 10.100999999999841 10.101999999999840 10.102999999999840 10.103999999999839 10.104999999999839 10.105999999999838 10.106999999999838 10.107999999999837 10.108999999999837 10.109999999999836 10.110999999999835 10.111999999999835 10.112999999999834 10.113999999999834 10.114999999999833 10.115999999999833 10.116999999999832 10.117999999999832 10.118999999999831 10.119999999999830 10.120999999999830 10.121999999999829 10.122999999999829 10.123999999999828 10.124999999999828 10.125999999999827 10.126999999999827 10.127999999999826 10.128999999999825 10.129999999999825 10.130999999999824 10.131999999999824 10.132999999999823 10.133999999999823 10.134999999999822 10.135999999999822 10.136999999999821 10.137999999999820 10.138999999999820 10.139999999999819 10.140999999999819 10.141999999999818 10.142999999999818 10.143999999999817 10.144999999999817 10.145999999999816 10.146999999999816 10.147999999999815 10.148999999999814 10.149999999999814 10.150999999999813 10.151999999999813 10.152999999999812 10.153999999999812 10.154999999999811 10.155999999999811 10.156999999999810 10.157999999999809 10.158999999999809 10.159999999999808 10.160999999999808 10.161999999999807 10.162999999999807 10.163999999999806 10.164999999999806 10.165999999999805 10.166999999999804 10.167999999999804 10.168999999999803 10.169999999999803 10.170999999999802 10.171999999999802 10.172999999999801 10.173999999999801 10.174999999999800 10.175999999999799 10.176999999999799 10.177999999999798 10.178999999999798 10.179999999999797 10.180999999999797 10.181999999999796 10.182999999999796 10.183999999999795 10.184999999999794 10.185999999999794 10.186999999999793 10.187999999999793 10.188999999999792 10.189999999999792 10.190999999999791 10.191999999999791 10.192999999999790 10.193999999999789 10.194999999999789 10.195999999999788 10.196999999999788 10.197999999999787 10.198999999999787 10.199999999999786 10.200999999999786 10.201999999999785 10.202999999999784 10.203999999999784 10.204999999999783 10.205999999999783 10.206999999999782 10.207999999999782 10.208999999999781 10.209999999999781 10.210999999999780 10.211999999999779 10.212999999999779 10.213999999999778 10.214999999999778 10.215999999999777 10.216999999999777 10.217999999999776 10.218999999999776 10.219999999999775 10.220999999999774 10.221999999999774 10.222999999999773 10.223999999999773 10.224999999999772 10.225999999999772 10.226999999999771 10.227999999999771 10.228999999999770 10.229999999999769 10.230999999999769 10.231999999999768 10.232999999999768 10.233999999999767 10.234999999999767 10.235999999999766 10.236999999999766 10.237999999999765 10.238999999999765 10.239999999999764 10.240999999999763 10.241999999999763 10.242999999999762 10.243999999999762 10.244999999999761 10.245999999999761 10.246999999999760 10.247999999999760 10.248999999999759 10.249999999999758 10.250999999999758 10.251999999999757 10.252999999999757 10.253999999999756 10.254999999999756 10.255999999999755 10.256999999999755 10.257999999999754 10.258999999999753 10.259999999999753 10.260999999999752 10.261999999999752 10.262999999999751 10.263999999999751 10.264999999999750 10.265999999999750 10.266999999999749 10.267999999999748 10.268999999999748 10.269999999999747 10.270999999999747 10.271999999999746 10.272999999999746 10.273999999999745 10.274999999999745 10.275999999999744 10.276999999999743 10.277999999999743 10.278999999999742 10.279999999999742 10.280999999999741 10.281999999999741 10.282999999999740 10.283999999999740 10.284999999999739 10.285999999999738 10.286999999999738 10.287999999999737 10.288999999999737 10.289999999999736 10.290999999999736 10.291999999999735 10.292999999999735 10.293999999999734 10.294999999999733 10.295999999999733 10.296999999999732 10.297999999999732 10.298999999999731 10.299999999999731 10.300999999999730 10.301999999999730 10.302999999999729 10.303999999999728 10.304999999999728 10.305999999999727 10.306999999999727 10.307999999999726 10.308999999999726 10.309999999999725 10.310999999999725 10.311999999999724 10.312999999999723 10.313999999999723 10.314999999999722 10.315999999999722 10.316999999999721 10.317999999999721 10.318999999999720 10.319999999999720 10.320999999999719 10.321999999999719 10.322999999999718 10.323999999999717 10.324999999999717 10.325999999999716 10.326999999999716 10.327999999999715 10.328999999999715 10.329999999999714 10.330999999999714 10.331999999999713 10.332999999999712 10.333999999999712 10.334999999999711 10.335999999999711 10.336999999999710 10.337999999999710 10.338999999999709 10.339999999999709 10.340999999999708 10.341999999999707 10.342999999999707 10.343999999999706 10.344999999999706 10.345999999999705 10.346999999999705 10.347999999999704 10.348999999999704 10.349999999999703 10.350999999999702 10.351999999999702 10.352999999999701 10.353999999999701 10.354999999999700 10.355999999999700 10.356999999999699 10.357999999999699 10.358999999999698 10.359999999999697 10.360999999999697 10.361999999999696 10.362999999999696 10.363999999999695 10.364999999999695 10.365999999999694 10.366999999999694 10.367999999999693 10.368999999999692 10.369999999999692 10.370999999999691 10.371999999999691 10.372999999999690 10.373999999999690 10.374999999999689 10.375999999999689 10.376999999999688 10.377999999999687 10.378999999999687 10.379999999999686 10.380999999999686 10.381999999999685 10.382999999999685 10.383999999999684 10.384999999999684 10.385999999999683 10.386999999999682 10.387999999999682 10.388999999999681 10.389999999999681 10.390999999999680 10.391999999999680 10.392999999999679 10.393999999999679 10.394999999999678 10.395999999999677 10.396999999999677 10.397999999999676 10.398999999999676 10.399999999999675 10.400999999999675 10.401999999999674 10.402999999999674 10.403999999999673 10.404999999999673 10.405999999999672 10.406999999999671 10.407999999999671 10.408999999999670 10.409999999999670 10.410999999999669 10.411999999999669 10.412999999999668 10.413999999999668 10.414999999999667 10.415999999999666 10.416999999999666 10.417999999999665 10.418999999999665 10.419999999999664 10.420999999999664 10.421999999999663 10.422999999999663 10.423999999999662 10.424999999999661 10.425999999999661 10.426999999999660 10.427999999999660 10.428999999999659 10.429999999999659 10.430999999999658 10.431999999999658 10.432999999999657 10.433999999999656 10.434999999999656 10.435999999999655 10.436999999999655 10.437999999999654 10.438999999999654 10.439999999999653 10.440999999999653 10.441999999999652 10.442999999999651 10.443999999999651 10.444999999999650 10.445999999999650 10.446999999999649 10.447999999999649 10.448999999999648 10.449999999999648 10.450999999999647 10.451999999999646 10.452999999999646 10.453999999999645 10.454999999999645 10.455999999999644 10.456999999999644 10.457999999999643 10.458999999999643 10.459999999999642 10.460999999999641 10.461999999999641 10.462999999999640 10.463999999999640 10.464999999999639 10.465999999999639 10.466999999999638 10.467999999999638 10.468999999999637 10.469999999999636 10.470999999999636 10.471999999999635 10.472999999999635 10.473999999999634 10.474999999999634 10.475999999999633 10.476999999999633 10.477999999999632 10.478999999999631 10.479999999999631 10.480999999999630 10.481999999999630 10.482999999999629 10.483999999999629 10.484999999999628 10.485999999999628 10.486999999999627 10.487999999999627 10.488999999999626 10.489999999999625 10.490999999999625 10.491999999999624 10.492999999999624 10.493999999999623 10.494999999999623 10.495999999999622 10.496999999999622 10.497999999999621 10.498999999999620 10.499999999999620 10.500999999999619 10.501999999999619 10.502999999999618 10.503999999999618 10.504999999999617 10.505999999999617 10.506999999999616 10.507999999999615 10.508999999999615 10.509999999999614 10.510999999999614 10.511999999999613 10.512999999999613 10.513999999999612 10.514999999999612 10.515999999999611 10.516999999999610 10.517999999999610 10.518999999999609 10.519999999999609 10.520999999999608 10.521999999999608 10.522999999999607 10.523999999999607 10.524999999999606 10.525999999999605 10.526999999999605 10.527999999999604 10.528999999999604 10.529999999999603 10.530999999999603 10.531999999999602 10.532999999999602 10.533999999999601 10.534999999999600 10.535999999999600 10.536999999999599 10.537999999999599 10.538999999999598 10.539999999999598 10.540999999999597 10.541999999999597 10.542999999999596 10.543999999999595 10.544999999999595 10.545999999999594 10.546999999999594 10.547999999999593 10.548999999999593 10.549999999999592 10.550999999999592 10.551999999999591 10.552999999999590 10.553999999999590 10.554999999999589 10.555999999999589 10.556999999999588 10.557999999999588 10.558999999999587 10.559999999999587 10.560999999999586 10.561999999999585 10.562999999999585 10.563999999999584 10.564999999999584 10.565999999999583 10.566999999999583 10.567999999999582 10.568999999999582 10.569999999999581 10.570999999999581 10.571999999999580 10.572999999999579 10.573999999999579 10.574999999999578 10.575999999999578 10.576999999999577 10.577999999999577 10.578999999999576 10.579999999999576 10.580999999999575 10.581999999999574 10.582999999999574 10.583999999999573 10.584999999999573 10.585999999999572 10.586999999999572 10.587999999999571 10.588999999999571 10.589999999999570 10.590999999999569 10.591999999999569 10.592999999999568 10.593999999999568 10.594999999999567 10.595999999999567 10.596999999999566 10.597999999999566 10.598999999999565 10.599999999999564 10.600999999999564 10.601999999999563 10.602999999999563 10.603999999999562 10.604999999999562 10.605999999999561 10.606999999999561 10.607999999999560 10.608999999999559 10.609999999999559 10.610999999999558 10.611999999999558 10.612999999999557 10.613999999999557 10.614999999999556 10.615999999999556 10.616999999999555 10.617999999999554 10.618999999999554 10.619999999999553 10.620999999999553 10.621999999999552 10.622999999999552 10.623999999999551 10.624999999999551 10.625999999999550 10.626999999999549 10.627999999999549 10.628999999999548 10.629999999999548 10.630999999999547 10.631999999999547 10.632999999999546 10.633999999999546 10.634999999999545 10.635999999999544 10.636999999999544 10.637999999999543 10.638999999999543 10.639999999999542 10.640999999999542 10.641999999999541 10.642999999999541 10.643999999999540 10.644999999999539 10.645999999999539 10.646999999999538 10.647999999999538 10.648999999999537 10.649999999999537 10.650999999999536 10.651999999999536 10.652999999999535 10.653999999999535 10.654999999999534 10.655999999999533 10.656999999999533 10.657999999999532 10.658999999999532 10.659999999999531 10.660999999999531 10.661999999999530 10.662999999999530 10.663999999999529 10.664999999999528 10.665999999999528 10.666999999999527 10.667999999999527 10.668999999999526 10.669999999999526 10.670999999999525 10.671999999999525 10.672999999999524 10.673999999999523 10.674999999999523 10.675999999999522 10.676999999999522 10.677999999999521 10.678999999999521 10.679999999999520 10.680999999999520 10.681999999999519 10.682999999999518 10.683999999999518 10.684999999999517 10.685999999999517 10.686999999999516 10.687999999999516 10.688999999999515 10.689999999999515 10.690999999999514 10.691999999999513 10.692999999999513 10.693999999999512 10.694999999999512 10.695999999999511 10.696999999999511 10.697999999999510 10.698999999999510 10.699999999999509 10.700999999999508 10.701999999999508 10.702999999999507 10.703999999999507 10.704999999999506 10.705999999999506 10.706999999999505 10.707999999999505 10.708999999999504 10.709999999999503 10.710999999999503 10.711999999999502 10.712999999999502 10.713999999999501 10.714999999999501 10.715999999999500 10.716999999999500 10.717999999999499 10.718999999999498 10.719999999999498 10.720999999999497 10.721999999999497 10.722999999999496 10.723999999999496 10.724999999999495 10.725999999999495 10.726999999999494 10.727999999999493 10.728999999999493 10.729999999999492 10.730999999999492 10.731999999999491 10.732999999999491 10.733999999999490 10.734999999999490 10.735999999999489 10.736999999999489 10.737999999999488 10.738999999999487 10.739999999999487 10.740999999999486 10.741999999999486 10.742999999999485 10.743999999999485 10.744999999999484 10.745999999999484 10.746999999999483 10.747999999999482 10.748999999999482 10.749999999999481 10.750999999999481 10.751999999999480 10.752999999999480 10.753999999999479 10.754999999999479 10.755999999999478 10.756999999999477 10.757999999999477 10.758999999999476 10.759999999999476 10.760999999999475 10.761999999999475 10.762999999999474 10.763999999999474 10.764999999999473 10.765999999999472 10.766999999999472 10.767999999999471 10.768999999999471 10.769999999999470 10.770999999999470 10.771999999999469 10.772999999999469 10.773999999999468 10.774999999999467 10.775999999999467 10.776999999999466 10.777999999999466 10.778999999999465 10.779999999999465 10.780999999999464 10.781999999999464 10.782999999999463 10.783999999999462 10.784999999999462 10.785999999999461 10.786999999999461 10.787999999999460 10.788999999999460 10.789999999999459 10.790999999999459 10.791999999999458 10.792999999999457 10.793999999999457 10.794999999999456 10.795999999999456 10.796999999999455 10.797999999999455 10.798999999999454 10.799999999999454 10.800999999999453 10.801999999999452 10.802999999999452 10.803999999999451 10.804999999999451 10.805999999999450 10.806999999999450 10.807999999999449 10.808999999999449 10.809999999999448 10.810999999999447 10.811999999999447 10.812999999999446 10.813999999999446 10.814999999999445 10.815999999999445 10.816999999999444 10.817999999999444 10.818999999999443 10.819999999999443 10.820999999999442 10.821999999999441 10.822999999999441 10.823999999999440 10.824999999999440 10.825999999999439 10.826999999999439 10.827999999999438 10.828999999999438 10.829999999999437 10.830999999999436 10.831999999999436 10.832999999999435 10.833999999999435 10.834999999999434 10.835999999999434 10.836999999999433 10.837999999999433 10.838999999999432 10.839999999999431 10.840999999999431 10.841999999999430 10.842999999999430 10.843999999999429 10.844999999999429 10.845999999999428 10.846999999999428 10.847999999999427 10.848999999999426 10.849999999999426 10.850999999999425 10.851999999999425 10.852999999999424 10.853999999999424 10.854999999999423 10.855999999999423 10.856999999999422 10.857999999999421 10.858999999999421 10.859999999999420 10.860999999999420 10.861999999999419 10.862999999999419 10.863999999999418 10.864999999999418 10.865999999999417 10.866999999999416 10.867999999999416 10.868999999999415 10.869999999999415 10.870999999999414 10.871999999999414 10.872999999999413 10.873999999999413 10.874999999999412 10.875999999999411 10.876999999999411 10.877999999999410 10.878999999999410 10.879999999999409 10.880999999999409 10.881999999999408 10.882999999999408 10.883999999999407 10.884999999999406 10.885999999999406 10.886999999999405 10.887999999999405 10.888999999999404 10.889999999999404 10.890999999999403 10.891999999999403 10.892999999999402 10.893999999999401 10.894999999999401 10.895999999999400 10.896999999999400 10.897999999999399 10.898999999999399 10.899999999999398 10.900999999999398 10.901999999999397 10.902999999999397 10.903999999999396 10.904999999999395 10.905999999999395 10.906999999999394 10.907999999999394 10.908999999999393 10.909999999999393 10.910999999999392 10.911999999999392 10.912999999999391 10.913999999999390 10.914999999999390 10.915999999999389 10.916999999999389 10.917999999999388 10.918999999999388 10.919999999999387 10.920999999999387 10.921999999999386 10.922999999999385 10.923999999999385 10.924999999999384 10.925999999999384 10.926999999999383 10.927999999999383 10.928999999999382 10.929999999999382 10.930999999999381 10.931999999999380 10.932999999999380 10.933999999999379 10.934999999999379 10.935999999999378 10.936999999999378 10.937999999999377 10.938999999999377 10.939999999999376 10.940999999999375 10.941999999999375 10.942999999999374 10.943999999999374 10.944999999999373 10.945999999999373 10.946999999999372 10.947999999999372 10.948999999999371 10.949999999999370 10.950999999999370 10.951999999999369 10.952999999999369 10.953999999999368 10.954999999999368 10.955999999999367 10.956999999999367 10.957999999999366 10.958999999999365 10.959999999999365 10.960999999999364 10.961999999999364 10.962999999999363 10.963999999999363 10.964999999999362 10.965999999999362 10.966999999999361 10.967999999999360 10.968999999999360 10.969999999999359 10.970999999999359 10.971999999999358 10.972999999999358 10.973999999999357 10.974999999999357 10.975999999999356 10.976999999999355 10.977999999999355 10.978999999999354 10.979999999999354 10.980999999999353 10.981999999999353 10.982999999999352 10.983999999999352 10.984999999999351 10.985999999999351 10.986999999999350 10.987999999999349 10.988999999999349 10.989999999999348 10.990999999999348 10.991999999999347 10.992999999999347 10.993999999999346 10.994999999999346 10.995999999999345 10.996999999999344 10.997999999999344 10.998999999999343 10.999999999999343 11.000999999999342 11.001999999999342 11.002999999999341 11.003999999999341 11.004999999999340 11.005999999999339 11.006999999999339 11.007999999999338 11.008999999999338 11.009999999999337 11.010999999999337 11.011999999999336 11.012999999999336 11.013999999999335 11.014999999999334 11.015999999999334 11.016999999999333 11.017999999999333 11.018999999999332 11.019999999999332 11.020999999999331 11.021999999999331 11.022999999999330 11.023999999999329 11.024999999999329 11.025999999999328 11.026999999999328 11.027999999999327 11.028999999999327 11.029999999999326 11.030999999999326 11.031999999999325 11.032999999999324 11.033999999999324 11.034999999999323 11.035999999999323 11.036999999999322 11.037999999999322 11.038999999999321 11.039999999999321 11.040999999999320 11.041999999999319 11.042999999999319 11.043999999999318 11.044999999999318 11.045999999999317 11.046999999999317 11.047999999999316 11.048999999999316 11.049999999999315 11.050999999999314 11.051999999999314 11.052999999999313 11.053999999999313 11.054999999999312 11.055999999999312 11.056999999999311 11.057999999999311 11.058999999999310 11.059999999999309 11.060999999999309 11.061999999999308 11.062999999999308 11.063999999999307 11.064999999999307 11.065999999999306 11.066999999999306 11.067999999999305 11.068999999999305 11.069999999999304 11.070999999999303 11.071999999999303 11.072999999999302 11.073999999999302 11.074999999999301 11.075999999999301 11.076999999999300 11.077999999999300 11.078999999999299 11.079999999999298 11.080999999999298 11.081999999999297 11.082999999999297 11.083999999999296 11.084999999999296 11.085999999999295 11.086999999999295 11.087999999999294 11.088999999999293 11.089999999999293 11.090999999999292 11.091999999999292 11.092999999999291 11.093999999999291 11.094999999999290 11.095999999999290 11.096999999999289 11.097999999999288 11.098999999999288 11.099999999999287 11.100999999999287 11.101999999999286 11.102999999999286 11.103999999999285 11.104999999999285 11.105999999999284 11.106999999999283 11.107999999999283 11.108999999999282 11.109999999999282 11.110999999999281 11.111999999999281 11.112999999999280 11.113999999999280 11.114999999999279 11.115999999999278 11.116999999999278 11.117999999999277 11.118999999999277 11.119999999999276 11.120999999999276 11.121999999999275 11.122999999999275 11.123999999999274 11.124999999999273 11.125999999999273 11.126999999999272 11.127999999999272 11.128999999999271 11.129999999999271 11.130999999999270 11.131999999999270 11.132999999999269 11.133999999999268 11.134999999999268 11.135999999999267 11.136999999999267 11.137999999999266 11.138999999999266 11.139999999999265 11.140999999999265 11.141999999999264 11.142999999999263 11.143999999999263 11.144999999999262 11.145999999999262 11.146999999999261 11.147999999999261 11.148999999999260 11.149999999999260 11.150999999999259 11.151999999999259 11.152999999999258 11.153999999999257 11.154999999999257 11.155999999999256 11.156999999999256 11.157999999999255 11.158999999999255 11.159999999999254 11.160999999999254 11.161999999999253 11.162999999999252 11.163999999999252 11.164999999999251 11.165999999999251 11.166999999999250 11.167999999999250 11.168999999999249 11.169999999999249 11.170999999999248 11.171999999999247 11.172999999999247 11.173999999999246 11.174999999999246 11.175999999999245 11.176999999999245 11.177999999999244 11.178999999999244 11.179999999999243 11.180999999999242 11.181999999999242 11.182999999999241 11.183999999999241 11.184999999999240 11.185999999999240 11.186999999999239 11.187999999999239 11.188999999999238 11.189999999999237 11.190999999999237 11.191999999999236 11.192999999999236 11.193999999999235 11.194999999999235 11.195999999999234 11.196999999999234 11.197999999999233 11.198999999999232 11.199999999999232 11.200999999999231 11.201999999999231 11.202999999999230 11.203999999999230 11.204999999999229 11.205999999999229 11.206999999999228 11.207999999999227 11.208999999999227 11.209999999999226 11.210999999999226 11.211999999999225 11.212999999999225 11.213999999999224 11.214999999999224 11.215999999999223 11.216999999999222 11.217999999999222 11.218999999999221 11.219999999999221 11.220999999999220 11.221999999999220 11.222999999999219 11.223999999999219 11.224999999999218 11.225999999999217 11.226999999999217 11.227999999999216 11.228999999999216 11.229999999999215 11.230999999999215 11.231999999999214 11.232999999999214 11.233999999999213 11.234999999999213 11.235999999999212 11.236999999999211 11.237999999999211 11.238999999999210 11.239999999999210 11.240999999999209 11.241999999999209 11.242999999999208 11.243999999999208 11.244999999999207 11.245999999999206 11.246999999999206 11.247999999999205 11.248999999999205 11.249999999999204 11.250999999999204 11.251999999999203 11.252999999999203 11.253999999999202 11.254999999999201 11.255999999999201 11.256999999999200 11.257999999999200 11.258999999999199 11.259999999999199 11.260999999999198 11.261999999999198 11.262999999999197 11.263999999999196 11.264999999999196 11.265999999999195 11.266999999999195 11.267999999999194 11.268999999999194 11.269999999999193 11.270999999999193 11.271999999999192 11.272999999999191 11.273999999999191 11.274999999999190 11.275999999999190 11.276999999999189 11.277999999999189 11.278999999999188 11.279999999999188 11.280999999999187 11.281999999999186 11.282999999999186 11.283999999999185 11.284999999999185 11.285999999999184 11.286999999999184 11.287999999999183 11.288999999999183 11.289999999999182 11.290999999999181 11.291999999999181 11.292999999999180 11.293999999999180 11.294999999999179 11.295999999999179 11.296999999999178 11.297999999999178 11.298999999999177 11.299999999999176 11.300999999999176 11.301999999999175 11.302999999999175 11.303999999999174 11.304999999999174 11.305999999999173 11.306999999999173 11.307999999999172 11.308999999999171 11.309999999999171 11.310999999999170 11.311999999999170 11.312999999999169 11.313999999999169 11.314999999999168 11.315999999999168 11.316999999999167 11.317999999999167 11.318999999999166 11.319999999999165 11.320999999999165 11.321999999999164 11.322999999999164 11.323999999999163 11.324999999999163 11.325999999999162 11.326999999999162 11.327999999999161 11.328999999999160 11.329999999999160 11.330999999999159 11.331999999999159 11.332999999999158 11.333999999999158 11.334999999999157 11.335999999999157 11.336999999999156 11.337999999999155 11.338999999999155 11.339999999999154 11.340999999999154 11.341999999999153 11.342999999999153 11.343999999999152 11.344999999999152 11.345999999999151 11.346999999999150 11.347999999999150 11.348999999999149 11.349999999999149 11.350999999999148 11.351999999999148 11.352999999999147 11.353999999999147 11.354999999999146 11.355999999999145 11.356999999999145 11.357999999999144 11.358999999999144 11.359999999999143 11.360999999999143 11.361999999999142 11.362999999999142 11.363999999999141 11.364999999999140 11.365999999999140 11.366999999999139 11.367999999999139 11.368999999999138 11.369999999999138 11.370999999999137 11.371999999999137 11.372999999999136 11.373999999999135 11.374999999999135 11.375999999999134 11.376999999999134 11.377999999999133 11.378999999999133 11.379999999999132 11.380999999999132 11.381999999999131 11.382999999999130 11.383999999999130 11.384999999999129 11.385999999999129 11.386999999999128 11.387999999999128 11.388999999999127 11.389999999999127 11.390999999999126 11.391999999999125 11.392999999999125 11.393999999999124 11.394999999999124 11.395999999999123 11.396999999999123 11.397999999999122 11.398999999999122 11.399999999999121 11.400999999999121 11.401999999999120 11.402999999999119 11.403999999999119 11.404999999999118 11.405999999999118 11.406999999999117 11.407999999999117 11.408999999999116 11.409999999999116 11.410999999999115 11.411999999999114 11.412999999999114 11.413999999999113 11.414999999999113 11.415999999999112 11.416999999999112 11.417999999999111 11.418999999999111 11.419999999999110 11.420999999999109 11.421999999999109 11.422999999999108 11.423999999999108 11.424999999999107 11.425999999999107 11.426999999999106 11.427999999999106 11.428999999999105 11.429999999999104 11.430999999999104 11.431999999999103 11.432999999999103 11.433999999999102 11.434999999999102 11.435999999999101 11.436999999999101 11.437999999999100 11.438999999999099 11.439999999999099 11.440999999999098 11.441999999999098 11.442999999999097 11.443999999999097 11.444999999999096 11.445999999999096 11.446999999999095 11.447999999999094 11.448999999999094 11.449999999999093 11.450999999999093 11.451999999999092 11.452999999999092 11.453999999999091 11.454999999999091 11.455999999999090 11.456999999999089 11.457999999999089 11.458999999999088 11.459999999999088 11.460999999999087 11.461999999999087 11.462999999999086 11.463999999999086 11.464999999999085 11.465999999999084 11.466999999999084 11.467999999999083 11.468999999999083 11.469999999999082 11.470999999999082 11.471999999999081 11.472999999999081 11.473999999999080 11.474999999999079 11.475999999999079 11.476999999999078 11.477999999999078 11.478999999999077 11.479999999999077 11.480999999999076 11.481999999999076 11.482999999999075 11.483999999999075 11.484999999999074 11.485999999999073 11.486999999999073 11.487999999999072 11.488999999999072 11.489999999999071 11.490999999999071 11.491999999999070 11.492999999999070 11.493999999999069 11.494999999999068 11.495999999999068 11.496999999999067 11.497999999999067 11.498999999999066 11.499999999999066 11.500999999999065 11.501999999999065 11.502999999999064 11.503999999999063 11.504999999999063 11.505999999999062 11.506999999999062 11.507999999999061 11.508999999999061 11.509999999999060 11.510999999999060 11.511999999999059 11.512999999999058 11.513999999999058 11.514999999999057 11.515999999999057 11.516999999999056 11.517999999999056 11.518999999999055 11.519999999999055 11.520999999999054 11.521999999999053 11.522999999999053 11.523999999999052 11.524999999999052 11.525999999999051 11.526999999999051 11.527999999999050 11.528999999999050 11.529999999999049 11.530999999999048 11.531999999999048 11.532999999999047 11.533999999999047 11.534999999999046 11.535999999999046 11.536999999999045 11.537999999999045 11.538999999999044 11.539999999999043 11.540999999999043 11.541999999999042 11.542999999999042 11.543999999999041 11.544999999999041 11.545999999999040 11.546999999999040 11.547999999999039 11.548999999999038 11.549999999999038 11.550999999999037 11.551999999999037 11.552999999999036 11.553999999999036 11.554999999999035 11.555999999999035 11.556999999999034 11.557999999999033 11.558999999999033 11.559999999999032 11.560999999999032 